data_global
_chemical_name_mineral 'Gadolinite-(Y)'
loop_
_publ_author_name
'Demartin F'
'Pilati T'
'Diella V'
'Gentile P'
'Gramaccioli C M'
_journal_name_full 'The Canadian Mineralogist'
_journal_volume 31 
_journal_year 1993
_journal_page_first 127
_journal_page_last 136
_publ_section_title
;
 A crystal-chemical investigation of alpine gadolinite
 Sample: 10
 Note: structure from ICSD
;
_database_code_amcsd 0005292
_chemical_compound_source 'Glogstafelberg, Val Formazza, Italy'
_chemical_formula_sum '(Y Gd.72 Ca.28) (Be1.44 B.56) Fe.22 Si2 O10'
_chemical_formula_sum ''
_cell_length_a 4.752
_cell_length_b 7.629
_cell_length_c 9.894
_cell_angle_alpha 90
_cell_angle_beta 90.24
_cell_angle_gamma 90
_cell_volume 358.684
_exptl_crystal_density_diffrn      4.267
_symmetry_space_group_name_H-M 'P 1 21/c 1'
loop_
_space_group_symop_operation_xyz
  'x,y,z'
  'x,1/2-y,1/2+z'
  '-x,1/2+y,1/2-z'
  '-x,-y,-z'
loop_
_atom_site_label
_atom_site_fract_x
_atom_site_fract_y
_atom_site_fract_z
_atom_site_occupancy
Y   0.00074   0.11045   0.33186   0.50000
Gd   0.00074   0.11045   0.33186   0.36000
Ca   0.00074   0.11045   0.33186   0.14000
Be   0.44450   0.41570   0.33760   0.72000
B   0.44450   0.41570   0.33760   0.28000
Fe   0.00000   0.00000   0.00000   0.22000
Si   0.51890   0.27540   0.08016   1.00000
O1   0.75950   0.41120   0.03380   1.00000
O2   0.32710   0.28720   0.45220   1.00000
O3   0.30460   0.34570   0.19670   1.00000
O4   0.68390   0.10810   0.14650   1.00000
O5   0.78550   0.41230   0.33280   1.00000
loop_
_atom_site_aniso_label
_atom_site_aniso_U_11
_atom_site_aniso_U_22
_atom_site_aniso_U_33
_atom_site_aniso_U_12
_atom_site_aniso_U_13
_atom_site_aniso_U_23
Y 0.00558 0.00571 0.00563 -0.00072 0.00013 -0.00014
Gd 0.00558 0.00571 0.00563 -0.00072 0.00013 -0.00014
Ca 0.00558 0.00571 0.00563 -0.00072 0.00013 -0.00014
Be 0.00900 0.00800 0.00900 0.00000 0.00000 0.00000
B 0.00900 0.00800 0.00900 0.00000 0.00000 0.00000
Fe 0.00800 0.00900 0.00800 -0.00100 0.00100 -0.00200
Si 0.00670 0.00620 0.00560 -0.00010 0.00090 -0.00020
O1 0.00780 0.00950 0.01160 0.00200 -0.00010 -0.00100
O2 0.01030 0.01240 0.00870 0.00260 -0.00220 -0.00010
O3 0.00940 0.01370 0.00760 0.00020 0.00090 0.00320
O4 0.01300 0.00890 0.01280 0.00140 -0.00020 0.00100
O5 0.00800 0.01500 0.00990 -0.00120 -0.00070 -0.00040

