
#(C) 2018 by FIZ Karlsruhe - Leibniz Institute for Information Infrastructure.  All rights reserved.
data_57009-ICSD
_database_code_ICSD 57009
_audit_creation_date 2004-04-01
_audit_update_record 2011-08-01
_chemical_name_systematic 'Chromium carbide (3/2)'
_chemical_formula_structural 'Cr3 C2'
_chemical_formula_sum 'C2 Cr3'
_chemical_name_structure_type Cr3C2
_exptl_crystal_density_diffrn 6.52
_publ_section_title
'Na Cl and filled Re3 B-type structures for two metastable chromium carbides'
loop_
_citation_id
_citation_journal_full
_citation_year
_citation_journal_volume
_citation_page_first
_citation_page_last
_citation_journal_id_ASTM
primary 'Philosophical Magazine, Part B' 1993 68 619 638 PMABDJ
loop_
_publ_author_name
'Bouzy, E.'
'Bauer Grosse, E.'
'le Caer, G.'
_cell_length_a 2.85(5)
_cell_length_b 9.25(2)
_cell_length_c 6.96(12)
_cell_angle_alpha 90.
_cell_angle_beta 90.
_cell_angle_gamma 90.
_cell_volume 183.48
_cell_formula_units_Z 4
_symmetry_space_group_name_H-M 'C m c m'
_symmetry_Int_Tables_number 63
_refine_ls_R_factor_all 0.1
loop_
_symmetry_equiv_pos_site_id
_symmetry_equiv_pos_as_xyz
1 '-x, y, -z+1/2'
2 '-x, -y, z+1/2'
3 '-x, y, z'
4 '-x, -y, -z'
5 'x, -y, z+1/2'
6 'x, y, -z+1/2'
7 'x, -y, -z'
8 'x, y, z'
9 '-x+1/2, y+1/2, -z+1/2'
10 '-x+1/2, -y+1/2, z+1/2'
11 '-x+1/2, y+1/2, z'
12 '-x+1/2, -y+1/2, -z'
13 'x+1/2, -y+1/2, z+1/2'
14 'x+1/2, y+1/2, -z+1/2'
15 'x+1/2, -y+1/2, -z'
16 'x+1/2, y+1/2, z'
loop_
_atom_type_symbol
_atom_type_oxidation_number
Cr0+ 0
C0+ 0
loop_
_atom_site_label
_atom_site_type_symbol
_atom_site_symmetry_multiplicity
_atom_site_Wyckoff_symbol
_atom_site_fract_x
_atom_site_fract_y
_atom_site_fract_z
_atom_site_B_iso_or_equiv
_atom_site_occupancy
_atom_site_attached_hydrogens
Cr1 Cr0+ 4 c 0 0.4067 0.25 . 1. 0
Cr2 Cr0+ 8 f 0 0.1422 0.0715 . 1. 0
C1 C0+ 4 b 0 0.5 0 . 1. 0
C2 C0+ 4 c 0 0.7563 0.25 . 1. 0
#End of TTdata_57009-ICSD