
#(C) 2018 by FIZ Karlsruhe - Leibniz Institute for Information Infrastructure.  All rights reserved.
data_99002-ICSD
_database_code_ICSD 99002
_audit_creation_date 2005-04-01
_chemical_name_systematic 'Iron carbide (3/1)'
_chemical_formula_structural 'Fe3 C'
_chemical_formula_sum 'C1 Fe3'
_chemical_name_structure_type Cementite-Fe3C
_chemical_name_mineral Cohenite
_exptl_crystal_density_diffrn 7.72
_cell_measurement_temperature 4.2
_publ_section_title

;
Thermal expansion and crystal structure of cementite, Fe3 C, between 4 and 600
K determined by time-of-flight neutron powder diffraction
;
loop_
_citation_id
_citation_journal_full
_citation_year
_citation_journal_volume
_citation_page_first
_citation_page_last
_citation_journal_id_ASTM
primary 'Journal of Applied Crystallography' 2004 37 82 90 JACGAR
loop_
_publ_author_name
'Wood, I.G.'
'Vocadlo, L.'
'Knight, K.S.'
'Dobson, D.P.'
'Marshall, W.G.'
'Price, G.D.'
'Brodholt, J.'
_cell_length_a 5.0825(2)
_cell_length_b 6.733(1)
_cell_length_c 4.5119(3)
_cell_angle_alpha 90
_cell_angle_beta 90
_cell_angle_gamma 90
_cell_volume 154.4
_cell_formula_units_Z 4
_symmetry_space_group_name_H-M 'P n m a'
_symmetry_Int_Tables_number 62
_refine_ls_R_factor_all 0.055
loop_
_symmetry_equiv_pos_site_id
_symmetry_equiv_pos_as_xyz
1 'x+1/2, y, -z+1/2'
2 'x, -y+1/2, z'
3 '-x+1/2, y+1/2, z+1/2'
4 '-x, -y, -z'
5 '-x+1/2, -y, z+1/2'
6 '-x, y+1/2, -z'
7 'x+1/2, -y+1/2, -z+1/2'
8 'x, y, z'
loop_
_atom_type_symbol
_atom_type_oxidation_number
Fe0+ 0
C0+ 0
loop_
_atom_site_label
_atom_site_type_symbol
_atom_site_symmetry_multiplicity
_atom_site_Wyckoff_symbol
_atom_site_fract_x
_atom_site_fract_y
_atom_site_fract_z
_atom_site_B_iso_or_equiv
_atom_site_occupancy
_atom_site_attached_hydrogens
Fe1 Fe0+ 8 d 0.1841(4) 0.0571(3) 0.3329(5) 0.014(1) 1. 0
Fe2 Fe0+ 4 c 0.0336(5) 0.25 0.8409(8) 0.014(1) 1. 0
C1 C0+ 4 c 0.8942(9) 0.25 0.4503(8) 0.041(2) 1. 0
#End of TTdata_99002-ICSD