#(C) 2020 by FIZ Karlsruhe - Leibniz Institute for Information Infrastructure.  All rights reserved.
data_632773-ICSD
_database_code_ICSD 632773
_audit_creation_date 2013-08-01
_audit_update_record 2020-02-01
_chemical_name_common 'Iron niobium (2/1)'
_chemical_formula_structural 'Fe2 Nb'
_chemical_formula_sum 'Fe2 Nb1'
_chemical_name_structure_type Laves(2H)#MgZn2
_exptl_crystal_density_diffrn 8.52
_citation_title

;
Influence of alloying with Co and Ni on the stability of the phases of the
system Fe-Nb
;
_publ_section_comment 'Cell and Type only determined'
loop_
_citation_id
_citation_journal_full
_citation_year
_citation_journal_volume
_citation_page_first
_citation_page_last
_citation_journal_id_ASTM
primary 'Izvestiya Vysshikh Uchebnykh Zavedenii, Chernaya Metallurgiya' 1981 24
116 118 IVUMAX
loop_
_citation_author_citation_id
_citation_author_name
primary 'Varli, K.V.'
primary 'Druzhinina, T.I.'
primary 'Diakonova, N.P.'
primary 'Pirosova, S.E.'
primary 'Rutman, A.M.'
_cell_length_a 4.834(2)
_cell_length_b 4.834(2)
_cell_length_c 7.885(6)
_cell_angle_alpha 90.
_cell_angle_beta 90.
_cell_angle_gamma 120.
_cell_volume 159.57
_cell_formula_units_Z 4
_space_group_name_H-M_alt 'P 63/m m c'
_space_group_IT_number 194
loop_
_space_group_symop_id
_space_group_symop_operation_xyz
1 'x, x-y, -z+1/2'
2 '-x+y, y, -z+1/2'
3 '-y, -x, -z+1/2'
4 '-x+y, -x, -z+1/2'
5 '-y, x-y, -z+1/2'
6 'x, y, -z+1/2'
7 '-x, -x+y, z+1/2'
8 'x-y, -y, z+1/2'
9 'y, x, z+1/2'
10 'x-y, x, z+1/2'
11 'y, -x+y, z+1/2'
12 '-x, -y, z+1/2'
13 '-x, -x+y, -z'
14 'x-y, -y, -z'
15 'y, x, -z'
16 'x-y, x, -z'
17 'y, -x+y, -z'
18 '-x, -y, -z'
19 'x, x-y, z'
20 '-x+y, y, z'
21 '-y, -x, z'
22 '-x+y, -x, z'
23 '-y, x-y, z'
24 'x, y, z'
loop_
_atom_type_symbol
_atom_type_oxidation_number
Nb0+ 0
Fe0+ 0
loop_
_atom_site_label
_atom_site_type_symbol
_atom_site_symmetry_multiplicity
_atom_site_Wyckoff_symbol
_atom_site_fract_x
_atom_site_fract_y
_atom_site_fract_z
_atom_site_B_iso_or_equiv
_atom_site_occupancy
Nb1 Nb0+ 4 f 0.3333 0.6667 0.063 . 1.
Fe1 Fe0+ 2 a 0 0 0 . 1.
Fe2 Fe0+ 6 h 0.83 0.66 0.25 . 1.
#End of TTdata_632773-ICSD
