#Note: File was created from MgZn2 cif file and all the Mg replaced by Nb, and Zr by Cr atoms. Lattice parameters also adjusted.
#(C) 2021 by FIZ Karlsruhe - Leibniz Institute for Information Infrastructure.  All rights reserved.
data_46006-ICSD
_database_code_ICSD 46006
_audit_creation_date 1984-12-31
_audit_update_record 2008-08-01
_chemical_name_common 'Magnesium zinc (1/2)'
_chemical_formula_structural 'Mg Zn2'
_chemical_formula_sum 'Mg1 Zn2'
_chemical_name_structure_type Laves(2H)#MgZn2
_exptl_crystal_density_diffrn 5.09
_citation_title
'The charge-density study of the Laves phases, Mg Zn2 and Mg Cu2'
loop_
_citation_id
_citation_journal_full
_citation_year
_citation_journal_volume
_citation_page_first
_citation_page_last
_citation_journal_id_ASTM
primary 'Acta Crystallographica, Section C: Crystal Structure Communications'
1984 40 1 5 ACSCEE
loop_
_citation_author_citation_id
_citation_author_name
primary 'Ohba, T.'
primary 'Kitano, Y.'
primary 'Komura, Y.'
_cell_length_a 5.7156(1)
_cell_length_b 5.7156(1)
_cell_length_c 9.44(3)
_cell_angle_alpha 90.
_cell_angle_beta 90.
_cell_angle_gamma 120.
_cell_volume 202.37
_cell_formula_units_Z 4
_space_group_name_H-M_alt 'P 63/m m c'
_space_group_IT_number 194
loop_
_space_group_symop_id
_space_group_symop_operation_xyz
1 'x, x-y, -z+1/2'
2 '-x+y, y, -z+1/2'
3 '-y, -x, -z+1/2'
4 '-x+y, -x, -z+1/2'
5 '-y, x-y, -z+1/2'
6 'x, y, -z+1/2'
7 '-x, -x+y, z+1/2'
8 'x-y, -y, z+1/2'
9 'y, x, z+1/2'
10 'x-y, x, z+1/2'
11 'y, -x+y, z+1/2'
12 '-x, -y, z+1/2'
13 '-x, -x+y, -z'
14 'x-y, -y, -z'
15 'y, x, -z'
16 'x-y, x, -z'
17 'y, -x+y, -z'
18 '-x, -y, -z'
19 'x, x-y, z'
20 '-x+y, y, z'
21 '-y, -x, z'
22 '-x+y, -x, z'
23 '-y, x-y, z'
24 'x, y, z'
loop_
_atom_type_symbol
_atom_type_oxidation_number
Nb0+ 0
Cr0+ 0
loop_
_atom_site_label
_atom_site_type_symbol
_atom_site_symmetry_multiplicity
_atom_site_Wyckoff_symbol
_atom_site_fract_x
_atom_site_fract_y
_atom_site_fract_z
_atom_site_B_iso_or_equiv
_atom_site_occupancy
Nb1 Nb0+ 4 f 0.3333 0.6667 0.06286(13) . 1.
Cr1 Cr0+ 2 a 0 0 0 . 1.
Cr2 Cr0+ 6 h -.16952(4) -.33904(8) 0.25 . 1.
loop_
_atom_site_aniso_label
_atom_site_aniso_type_symbol
_atom_site_aniso_U_11
_atom_site_aniso_U_22
_atom_site_aniso_U_33
_atom_site_aniso_U_12
_atom_site_aniso_U_13
_atom_site_aniso_U_23
Nb1 Nb0+ 0.01328(34) 0.01328(34) 0.01386(50) 0.00664(17) 0 0
Cr1 Cr0+ 0.01427(17) 0.01427(17) 0.00809(21) 0.00714(17) 0 0
Cr2 Cr0+ 0.01311(13) 0.00844(15) 0.01352(12) 0.00422(15) 0 0
#End of TTdata_46006-ICSD