
#(C) 2020 by FIZ Karlsruhe - Leibniz Institute for Information Infrastructure.  All rights reserved.
data_645082-ICSD
_database_code_ICSD 645082
_audit_creation_date 2008-08-01
_audit_update_record 2017-08-01
_chemical_name_common 'Niobium nickel (1/3)'
_chemical_formula_structural 'Nb Ni3'
_chemical_formula_sum 'Nb1 Ni3'
_chemical_name_structure_type Cu3Ti
_exptl_crystal_density_diffrn 8.98
_citation_title 'Ueber messingartige Phasen mit A3-verwandter Struktur'
_publ_section_comment 'Cell and Type only determined'
loop_
_citation_id
_citation_journal_full
_citation_year
_citation_journal_volume
_citation_page_first
_citation_page_last
_citation_journal_id_ASTM
primary 'Zeitschrift fuer Metallkunde' 1959 50 442 452 ZEMTAE
loop_
_citation_author_citation_id
_citation_author_name
primary 'Burkhardt, Walter'
primary 'Schubert, Konrad'
_cell_length_a 5.716
_cell_length_b 5.036
_cell_length_c 4.109
_cell_angle_alpha 90.
_cell_angle_beta 90.
_cell_angle_gamma 90.
_cell_volume 99.49
_cell_formula_units_Z 2
_space_group_name_H-M_alt 'P m m n S'
_space_group_IT_number 59
loop_
_space_group_symop_id
_space_group_symop_operation_xyz
1 'x+1/2, -y+1/2, -z'
2 'x+1/2, y+1/2, -z'
3 'x, -y, z'
4 '-x, y, z'
5 '-x+1/2, y+1/2, -z'
6 '-x+1/2, -y+1/2, -z'
7 '-x, -y, z'
8 'x, y, z'
loop_
_atom_type_symbol
_atom_type_oxidation_number
Nb0+ 0
Ni0+ 0
loop_
_atom_site_label
_atom_site_type_symbol
_atom_site_symmetry_multiplicity
_atom_site_Wyckoff_symbol
_atom_site_fract_x
_atom_site_fract_y
_atom_site_fract_z
_atom_site_B_iso_or_equiv
_atom_site_occupancy
Nb1 Nb0+ 2 a 0 0 0.33 . 1.
Ni1 Ni0+ 2 b 0 0.5 0.67 . 1.
Ni2 Ni0+ 4 f 0.25 0 0.833 . 1.
#End of TTdata_645082-ICSD
