
#(C) 2018 by FIZ Karlsruhe - Leibniz Institute for Information Infrastructure.  All rights reserved.
data_52289-ICSD
_database_code_ICSD 52289
_audit_creation_date 2003-04-01
_audit_update_record 2013-02-01
_chemical_name_systematic 'Chromium carbide (7/3)'
_chemical_formula_structural 'Cr7 C3'
_chemical_formula_sum 'C3 Cr7'
_exptl_crystal_density_diffrn 6.9
_publ_section_title
'The structure and composition of the chromium- and manganese-carbides'
loop_
_citation_id
_citation_journal_full
_citation_year
_citation_journal_volume
_citation_page_first
_citation_page_last
_citation_journal_id_ASTM
primary 'Jernkontorets Annaler' 1935 1935 231 240 JERNAF
loop_
_publ_author_name
'Westgren, A.'
_cell_length_a 14.01
_cell_length_b 14.01
_cell_length_c 4.532
_cell_angle_alpha 90.
_cell_angle_beta 90.
_cell_angle_gamma 120.
_cell_volume 770.37
_cell_formula_units_Z 8
_symmetry_space_group_name_H-M 'P 63 m c'
_symmetry_Int_Tables_number 186
loop_
_symmetry_equiv_pos_site_id
_symmetry_equiv_pos_as_xyz
1 '-x, -x+y, z+1/2'
2 'x-y, -y, z+1/2'
3 'y, x, z+1/2'
4 'x-y, x, z+1/2'
5 'y, -x+y, z+1/2'
6 '-x, -y, z+1/2'
7 'x, x-y, z'
8 '-x+y, y, z'
9 '-y, -x, z'
10 '-x+y, -x, z'
11 '-y, x-y, z'
12 'x, y, z'
loop_
_atom_type_symbol
_atom_type_oxidation_number
Cr0+ 0
C0+ 0
loop_
_atom_site_label
_atom_site_type_symbol
_atom_site_symmetry_multiplicity
_atom_site_Wyckoff_symbol
_atom_site_fract_x
_atom_site_fract_y
_atom_site_fract_z
_atom_site_B_iso_or_equiv
_atom_site_occupancy
_atom_site_attached_hydrogens
Cr1 Cr0+ 2 b 0.3333 0.6667 0.75 . 1. 0
Cr2 Cr0+ 6 c 0.06 0.94 0.5 . 1. 0
Cr3 Cr0+ 6 c 0.16667 0.33334 0.25 . 1. 0
Cr4 Cr0+ 6 c 0.23 0.46 0.75 . 1. 0
Cr5 Cr0+ 6 c 0.27 0.54 0.25 . 1. 0
Cr6 Cr0+ 6 c 0.56 0.12 0 . 1. 0
Cr7 Cr0+ 12 d 0.27 0.04 0.25 . 1. 0
Cr8 Cr0+ 12 d 0.44 0.06 0.5 . 1. 0
C1 C0+ 6 c 0.1 0.2 0 . 1. 0
C2 C0+ 6 c 0.4 0.8 0 . 1. 0
C3 C0+ 12 d 0.4 0.1 0 . 1. 0
#End of TTdata_52289-ICSD