
#(C) 2018 by FIZ Karlsruhe - Leibniz Institute for Information Infrastructure.  All rights reserved.
data_87129-ICSD
_database_code_ICSD 87129
_audit_creation_date 2000-07-15
_audit_update_record 2014-08-01
_chemical_name_systematic 'Chromium carbide (7/3)'
_chemical_formula_structural 'Cr7 C3'
_chemical_formula_sum 'C3 Cr7'
_chemical_name_structure_type Cr7C3
_exptl_crystal_density_diffrn 6.9
_publ_section_title 'Etude cristallographique des carbures Cr7 C3 et Mn7 C3'
loop_
_citation_id
_citation_journal_full
_citation_year
_citation_journal_volume
_citation_page_first
_citation_page_last
_citation_journal_id_ASTM
primary 'Annales de Chimie (Cachan, France)' 1970 5 461 470 ANCPAC
loop_
_publ_author_name
'Rouault, M.A.'
'Herpin, P.'
'Fruchart, M.R.'
_cell_length_a 7.01
_cell_length_b 12.142
_cell_length_c 4.526
_cell_angle_alpha 90.
_cell_angle_beta 90.
_cell_angle_gamma 90.
_cell_volume 385.23
_cell_formula_units_Z 4
_symmetry_space_group_name_H-M 'P m c n'
_symmetry_Int_Tables_number 62
_refine_ls_R_factor_all 0.1
loop_
_symmetry_equiv_pos_site_id
_symmetry_equiv_pos_as_xyz
1 'x, -y+1/2, z+1/2'
2 '-x+1/2, y, z'
3 'x+1/2, y+1/2, -z+1/2'
4 '-x, -y, -z'
5 '-x, y+1/2, -z+1/2'
6 'x+1/2, -y, -z'
7 '-x+1/2, -y+1/2, z+1/2'
8 'x, y, z'
loop_
_atom_type_symbol
_atom_type_oxidation_number
Cr0+ 0
C0+ 0
loop_
_atom_site_label
_atom_site_type_symbol
_atom_site_symmetry_multiplicity
_atom_site_Wyckoff_symbol
_atom_site_fract_x
_atom_site_fract_y
_atom_site_fract_z
_atom_site_B_iso_or_equiv
_atom_site_occupancy
_atom_site_attached_hydrogens
Cr1 Cr0+ 8 d 0.064(2) 0.811(9) 0.056(5) . 1. 0
Cr2 Cr0+ 4 c 0.25 0.626(1) 0.057(9) . 1. 0
Cr3 Cr0+ 4 c 0.25 0.206(3) 0.250(1) . 1. 0
Cr4 Cr0+ 4 c 0.25 0.416(5) 0.261(9) . 1. 0
Cr5 Cr0+ 8 d 0.065(7) 0.021(8) 0.250(9) . 1. 0
C1 C0+ 4 c 0.25 0.562(9) 0.459(4) . 1. 0
C2 C0+ 8 d 0.029(1) 0.342(8) 0.028(8) . 1. 0
#End of TTdata_87129-ICSD