
#(C) 2018 by FIZ Karlsruhe - Leibniz Institute for Information Infrastructure, and the U.S. Secretary of
#Commerce on behalf of the United States.  All rights reserved.
data_617482-ICSD
_database_code_ICSD 617482
_audit_creation_date 2012-02-01
_audit_update_record 2017-08-01
_chemical_name_systematic 'Chromium carbide (3/2)'
_chemical_formula_structural 'Cr3 C2'
_chemical_formula_sum 'C2 Cr3'
_chemical_name_structure_type Cr3C2(Pnma)
_exptl_crystal_density_diffrn 6.68
_publ_section_title

;
The ternary systems: Cr -Al -C, V -Al -C, and Ti -Al -C and the behavior of
H-phases (M2 Al C)
;
_publ_section_comment 'Cell and Type only determined'
loop_
_citation_id
_citation_journal_full
_citation_year
_citation_journal_volume
_citation_page_first
_citation_page_last
_citation_journal_id_ASTM
primary 'Journal of Solid State Chemistry' 1980 32 213 219 JSSCBI
loop_
_publ_author_name
'Schuster, J.C.'
'Nowotny, H.'
'Vaccaro, C.'
_cell_length_a 5.524
_cell_length_b 2.828
_cell_length_c 11.466
_cell_angle_alpha 90.
_cell_angle_beta 90.
_cell_angle_gamma 90.
_cell_volume 179.12
_cell_formula_units_Z 4
_symmetry_space_group_name_H-M 'P n m a'
_symmetry_Int_Tables_number 62
loop_
_symmetry_equiv_pos_site_id
_symmetry_equiv_pos_as_xyz
1 'x+1/2, y, -z+1/2'
2 'x, -y+1/2, z'
3 '-x+1/2, y+1/2, z+1/2'
4 '-x, -y, -z'
5 '-x+1/2, -y, z+1/2'
6 '-x, y+1/2, -z'
7 'x+1/2, -y+1/2, -z+1/2'
8 'x, y, z'
loop_
_atom_type_symbol
_atom_type_oxidation_number
Cr2+ 2.67
C4- -4
loop_
_atom_site_label
_atom_site_type_symbol
_atom_site_symmetry_multiplicity
_atom_site_Wyckoff_symbol
_atom_site_fract_x
_atom_site_fract_y
_atom_site_fract_z
_atom_site_B_iso_or_equiv
_atom_site_occupancy
_atom_site_attached_hydrogens
Cr1 Cr2+ 4 c 0.016 0.25 0.402 . 1. 0
Cr2 Cr2+ 4 c 0.181 0.25 0.774 . 1. 0
Cr3 Cr2+ 4 c 0.869 0.25 0.931 . 1. 0
C1 C4- 4 c 0.099 0.25 0.206 . 1. 0
C2 C4- 4 c 0.24 0.25 0.953 . 1. 0
#End of TTdata_617482-ICSD