
#(C) 2018 by FIZ Karlsruhe - Leibniz Institute for Information Infrastructure.  All rights reserved.
data_76799-ICSD
_database_code_ICSD 76799
_audit_creation_date 2001-07-16
_audit_update_record 2013-02-01
_chemical_name_systematic 'Chromium carbide (7/3)'
_chemical_formula_structural 'Cr7 C3'
_chemical_formula_sum 'C3 Cr7'
_chemical_name_structure_type Cr7C3
_exptl_crystal_density_diffrn 6.9
_publ_section_title 'Etude cristallographique des carbures Cr7 C3 et Mn7 C3'
loop_
_citation_id
_citation_journal_full
_citation_year
_citation_journal_volume
_citation_page_first
_citation_page_last
_citation_journal_id_ASTM
primary 'Annales de Chimie (Cachan, France)' 1970 5 461 470 ANCPAC
loop_
_publ_author_name
'Rouault, M.A.'
'Herpin, P.'
'Fruchart, M.R.'
_cell_length_a 4.526(5)
_cell_length_b 7.010(5)
_cell_length_c 12.142(5)
_cell_angle_alpha 90.
_cell_angle_beta 90.
_cell_angle_gamma 90.
_cell_volume 385.23
_cell_formula_units_Z 4
_symmetry_space_group_name_H-M 'P n m a'
_symmetry_Int_Tables_number 62
_refine_ls_R_factor_all 0.11
loop_
_symmetry_equiv_pos_site_id
_symmetry_equiv_pos_as_xyz
1 'x+1/2, y, -z+1/2'
2 'x, -y+1/2, z'
3 '-x+1/2, y+1/2, z+1/2'
4 '-x, -y, -z'
5 '-x+1/2, -y, z+1/2'
6 '-x, y+1/2, -z'
7 'x+1/2, -y+1/2, -z+1/2'
8 'x, y, z'
loop_
_atom_type_symbol
_atom_type_oxidation_number
Cr0+ 0
C0+ 0
loop_
_atom_site_label
_atom_site_type_symbol
_atom_site_symmetry_multiplicity
_atom_site_Wyckoff_symbol
_atom_site_fract_x
_atom_site_fract_y
_atom_site_fract_z
_atom_site_B_iso_or_equiv
_atom_site_occupancy
_atom_site_attached_hydrogens
Cr1 Cr0+ 4 c 0.0579 0.25 0.6261 . 1. 0
Cr2 Cr0+ 4 c 0.2501 0.25 0.2063 . 1. 0
Cr3 Cr0+ 4 c 0.2619 0.25 0.4165 . 1. 0
Cr4 Cr0+ 8 d 0.0565 0.0642 0.8119 . 1. 0
Cr5 Cr0+ 8 d 0.2509 0.0657 0.0218 . 1. 0
C1 C0+ 4 c 0.4594 0.25 0.5629 . 1. 0
C2 C0+ 8 d 0.0288 0.0291 0.3428 . 1. 0
#End of TTdata_76799-ICSD