
#(C) 2020 by FIZ Karlsruhe - Leibniz Institute for Information Infrastructure.  All rights reserved.
data_625864-ICSD
_database_code_ICSD 625864
_audit_creation_date 2012-02-01
_audit_update_record 2017-08-01
_chemical_name_common 'Chromium iron (1/1)'
_chemical_formula_structural 'Cr Fe'
_chemical_formula_sum 'Cr1 Fe1'
_chemical_name_structure_type U(beta)#Cr0.49Fe0.51
_exptl_crystal_density_diffrn 7.62
_citation_title 'Magneto-optical properties of metallic ferromagnetic materials'
_publ_section_comment 'Cell and Type only determined'
loop_
_citation_id
_citation_journal_full
_citation_year
_citation_journal_volume
_citation_page_first
_citation_page_last
_citation_journal_id_ASTM
primary 'Journal of Magnetism and Magnetic Materials' 1983 38 1 22 JMMMDC
loop_
_citation_author_citation_id
_citation_author_name
primary 'Buschow, K.H.J.'
primary 'Engen, P.G. van'
primary 'Jongebreur, R.'
_cell_length_a 8.802
_cell_length_b 8.802
_cell_length_c 4.548
_cell_angle_alpha 90.
_cell_angle_beta 90.
_cell_angle_gamma 90.
_cell_volume 352.36
_cell_formula_units_Z 15
_space_group_name_H-M_alt 'P 42/m n m'
_space_group_IT_number 136
loop_
_space_group_symop_id
_space_group_symop_operation_xyz
1 '-y+1/2, x+1/2, -z+1/2'
2 'y+1/2, -x+1/2, -z+1/2'
3 'y, x, -z'
4 '-y, -x, -z'
5 'y+1/2, -x+1/2, z+1/2'
6 '-y+1/2, x+1/2, z+1/2'
7 '-y, -x, z'
8 'y, x, z'
9 'x+1/2, -y+1/2, -z+1/2'
10 '-x+1/2, y+1/2, -z+1/2'
11 'x, y, -z'
12 '-x, -y, -z'
13 '-x+1/2, y+1/2, z+1/2'
14 'x+1/2, -y+1/2, z+1/2'
15 '-x, -y, z'
16 'x, y, z'
loop_
_atom_type_symbol
_atom_type_oxidation_number
Fe0+ 0
Cr0+ 0
Fe0+ 0
Cr0+ 0
Fe0+ 0
Cr0+ 0
Fe0+ 0
Cr0+ 0
Fe0+ 0
Cr0+ 0
loop_
_atom_site_label
_atom_site_type_symbol
_atom_site_symmetry_multiplicity
_atom_site_Wyckoff_symbol
_atom_site_fract_x
_atom_site_fract_y
_atom_site_fract_z
_atom_site_B_iso_or_equiv
_atom_site_occupancy
Fe1 Fe0+ 2 a 0 0 0 . 0.9
Cr1 Cr0+ 2 a 0 0 0 . 0.1
Fe2 Fe0+ 4 f 0.398 0.398 0 . 0.3
Cr2 Cr0+ 4 f 0.398 0.398 0 . 0.7
Fe3 Fe0+ 8 i 0.463 0.132 0 . 0.3
Cr3 Cr0+ 8 i 0.463 0.132 0 . 0.7
Fe4 Fe0+ 8 i 0.738 0.065 0 . 0.9
Cr4 Cr0+ 8 i 0.738 0.065 0 . 0.1
Fe5 Fe0+ 8 j 0.182 0.182 0.252 . 0.3
Cr5 Cr0+ 8 j 0.182 0.182 0.252 . 0.7
#End of TTdata_625864-ICSD
