
#(C) 2020 by FIZ Karlsruhe - Leibniz Institute for Information Infrastructure.  All rights reserved.
data_150650-ICSD
_database_code_ICSD 150650
_audit_creation_date 2006-04-01
_chemical_name_common 'Uranium zirconium (1/2) - delta'
_chemical_formula_structural 'U Zr2'
_chemical_formula_sum 'U1 Zr2'
_chemical_name_structure_type CaHg2
_exptl_crystal_density_diffrn 10.35
_citation_title
'Discussion of intermediate phase in the uranium-zirconium system'
loop_
_citation_id
_citation_journal_full
_citation_year
_citation_journal_volume
_citation_page_first
_citation_page_last
_citation_journal_id_ASTM
primary 'Journal of Metals' 1957 209 521 521 JOMTAA
loop_
_citation_author_citation_id
_citation_author_name
primary 'Silcock, J.M.'
_cell_length_a 5.03
_cell_length_b 5.03
_cell_length_c 3.08
_cell_angle_alpha 90.
_cell_angle_beta 90.
_cell_angle_gamma 120.
_cell_volume 67.49
_cell_formula_units_Z 1
_space_group_name_H-M_alt 'P 6/m m m'
_space_group_IT_number 191
loop_
_space_group_symop_id
_space_group_symop_operation_xyz
1 '-x, -x+y, -z'
2 'x-y, -y, -z'
3 'y, x, -z'
4 '-x+y, -x, -z'
5 '-y, x-y, -z'
6 'x, y, -z'
7 'x, x-y, -z'
8 '-x+y, y, -z'
9 '-y, -x, -z'
10 'x-y, x, -z'
11 'y, -x+y, -z'
12 '-x, -y, -z'
13 'x, x-y, z'
14 '-x+y, y, z'
15 '-y, -x, z'
16 'x-y, x, z'
17 'y, -x+y, z'
18 '-x, -y, z'
19 '-x, -x+y, z'
20 'x-y, -y, z'
21 'y, x, z'
22 '-x+y, -x, z'
23 '-y, x-y, z'
24 'x, y, z'
loop_
_atom_type_symbol
_atom_type_oxidation_number
Zr0+ 0
U0+ 0
loop_
_atom_site_label
_atom_site_type_symbol
_atom_site_symmetry_multiplicity
_atom_site_Wyckoff_symbol
_atom_site_fract_x
_atom_site_fract_y
_atom_site_fract_z
_atom_site_B_iso_or_equiv
_atom_site_occupancy
Zr1 Zr0+ 1 a 0 0 0 . 1.
Zr2 Zr0+ 2 d 0.3333 0.6667 0.5 . 0.5
U1 U0+ 2 d 0.3333 0.6667 0.5 . 0.5
#End of TTdata_150650-ICSD